/*--------------------------------*- C++ -*----------------------------------*\
| =========                 |                                                 |
| \\      /  F ield         | OpenFOAM: The Open Source CFD Toolbox           |
|  \\    /   O peration     | Version:  v2012                                 |
|   \\  /    A nd           | Website:  www.openfoam.com                      |
|    \\/     M anipulation  |                                                 |
\*---------------------------------------------------------------------------*/
FoamFile
{
    version     2.0;
    format      ascii;
    class       volVectorField;
    object      U;
}
// * * * * * * * * * * * * * * * * * * * * * * * * * * * * * * * * * * * * * //

dimensions      [0 1 -1 0 0 0 0];

internalField   uniform (6 0 0);

boundaryField
{
    airfoil
    {
        type            fixedValue;
        value           uniform (0 0 0);
    }
    inlet
    {
        type            fixedValue;
        value           uniform (7.56 0 0);
    }
    outlet
    {
        type            inletOutlet;
        value           uniform (0 0 0);
        inletValue      uniform (0 0 0);
    }
    "(top|bottom)"
    {
        type            slip;
    }
    frontCyc
    {
        type            cyclicAMI;
    }
    backCyc
    {
        type            cyclicAMI;
    }
}


// ************************************************************************* //
